<?xml version="1.0" encoding="UTF-8"?>

<!-- generated on 10/21/18 18:22:52 by Eclipse SUMO GUI Version 1.0.1
<configuration xmlns:xsi="http://www.w3.org/2001/XMLSchema-instance" xsi:noNamespaceSchemaLocation="http://sumo.dlr.de/xsd/sumoConfiguration.xsd">

    <input>
        <net-file value="data/cross.net.xml"/>
        <route-files value="data/cross.rou.xml"/>
        <additional-files value="data/cross.det.xml"/>
    </input>

    <output>
        <tripinfo-output value="tripinfo.xml"/>
    </output>

    <time>
        <begin value="0"/>
    </time>

    <report>
        <verbose value="true"/>
        <no-step-log value="true"/>
    </report>

    <traci_server>
        <remote-port value="65369"/>
    </traci_server>

</configuration>
-->

<tripinfos xmlns:xsi="http://www.w3.org/2001/XMLSchema-instance" xsi:noNamespaceSchemaLocation="http://sumo.dlr.de/xsd/tripinfo_file.xsd">
    <tripinfo id="car_1" depart="1.00" departLane="e2A_0" departPos="5.10" departSpeed="0.00" departDelay="0.00" arrival="43.00" arrivalLane="A2w_0" arrivalPos="189.60" arrivalSpeed="12.99" duration="42.00" routeLength="394.90" waitingTime="0.00" waitingCount="0" stopTime="0.00" timeLoss="11.12" rerouteNo="0" devices="tripinfo_car_1" vType="typeCar" speedFactor="0.94" vaporized=""/>
    <tripinfo id="car_2" depart="5.00" departLane="s2A_0" departPos="5.10" departSpeed="0.00" departDelay="3.00" arrival="46.00" arrivalLane="A2n_1" arrivalPos="189.60" arrivalSpeed="13.81" duration="41.00" routeLength="394.90" waitingTime="0.00" waitingCount="0" stopTime="0.00" timeLoss="12.69" rerouteNo="0" devices="tripinfo_car_2" vType="typeCar" speedFactor="1.01" vaporized=""/>
    <tripinfo id="car_8" depart="11.00" departLane="n2A_0" departPos="5.10" departSpeed="0.00" departDelay="0.00" arrival="53.00" arrivalLane="A2s_1" arrivalPos="189.60" arrivalSpeed="12.66" duration="42.00" routeLength="394.90" waitingTime="0.00" waitingCount="0" stopTime="0.00" timeLoss="11.05" rerouteNo="0" devices="tripinfo_car_8" vType="typeCar" speedFactor="0.94" vaporized=""/>
    <tripinfo id="car_7" depart="10.00" departLane="s2A_0" departPos="5.10" departSpeed="0.00" departDelay="0.00" arrival="53.00" arrivalLane="A2n_1" arrivalPos="189.60" arrivalSpeed="12.28" duration="43.00" routeLength="394.90" waitingTime="0.00" waitingCount="0" stopTime="0.00" timeLoss="10.37" rerouteNo="0" devices="tripinfo_car_7" vType="typeCar" speedFactor="0.89" vaporized=""/>
    <tripinfo id="car_3" depart="3.00" departLane="n2A_0" departPos="5.10" departSpeed="0.00" departDelay="0.00" arrival="56.00" arrivalLane="A2s_0" arrivalPos="189.60" arrivalSpeed="14.82" duration="53.00" routeLength="394.90" waitingTime="1.00" waitingCount="1" stopTime="0.00" timeLoss="26.70" rerouteNo="0" devices="tripinfo_car_3" vType="typeCar" speedFactor="1.08" vaporized=""/>
    <tripinfo id="car_0" depart="0.00" departLane="s2A_0" departPos="5.10" departSpeed="0.00" departDelay="0.00" arrival="56.00" arrivalLane="A2n_0" arrivalPos="189.60" arrivalSpeed="14.46" duration="56.00" routeLength="394.90" waitingTime="3.00" waitingCount="1" stopTime="0.00" timeLoss="29.13" rerouteNo="0" devices="tripinfo_car_0" vType="typeCar" speedFactor="1.06" vaporized=""/>
    <tripinfo id="car_6" depart="11.00" departLane="e2A_0" departPos="5.10" departSpeed="0.00" departDelay="5.00" arrival="66.00" arrivalLane="A2w_1" arrivalPos="189.60" arrivalSpeed="14.50" duration="55.00" routeLength="394.90" waitingTime="2.00" waitingCount="1" stopTime="0.00" timeLoss="27.38" rerouteNo="0" devices="tripinfo_car_6" vType="typeCar" speedFactor="1.05" vaporized=""/>
    <tripinfo id="car_9" depart="11.00" departLane="w2A_0" departPos="5.10" departSpeed="0.00" departDelay="0.00" arrival="66.00" arrivalLane="A2e_0" arrivalPos="189.60" arrivalSpeed="11.52" duration="55.00" routeLength="394.90" waitingTime="0.00" waitingCount="0" stopTime="0.00" timeLoss="21.27" rerouteNo="0" devices="tripinfo_car_9" vType="typeCar" speedFactor="0.86" vaporized=""/>
    <tripinfo id="car_4" depart="6.00" departLane="e2A_0" departPos="5.10" departSpeed="0.00" departDelay="2.00" arrival="66.00" arrivalLane="A2w_0" arrivalPos="189.60" arrivalSpeed="14.07" duration="60.00" routeLength="394.90" waitingTime="6.00" waitingCount="1" stopTime="0.00" timeLoss="32.18" rerouteNo="0" devices="tripinfo_car_4" vType="typeCar" speedFactor="1.03" vaporized=""/>
    <tripinfo id="car_13" depart="22.00" departLane="w2A_0" departPos="5.10" departSpeed="0.00" departDelay="0.00" arrival="66.00" arrivalLane="A2e_1" arrivalPos="189.60" arrivalSpeed="15.34" duration="44.00" routeLength="394.90" waitingTime="0.00" waitingCount="0" stopTime="0.00" timeLoss="18.11" rerouteNo="0" devices="tripinfo_car_13" vType="typeCar" speedFactor="1.12" vaporized=""/>
    <tripinfo id="car_5" depart="6.00" departLane="w2A_0" departPos="5.10" departSpeed="0.00" departDelay="0.00" arrival="68.00" arrivalLane="A2e_0" arrivalPos="189.60" arrivalSpeed="11.21" duration="62.00" routeLength="394.90" waitingTime="6.00" waitingCount="1" stopTime="0.00" timeLoss="27.56" rerouteNo="0" devices="tripinfo_car_5" vType="typeCar" speedFactor="0.83" vaporized=""/>
    <tripinfo id="car_10" depart="16.00" departLane="e2A_0" departPos="5.10" departSpeed="0.00" departDelay="0.00" arrival="68.00" arrivalLane="A2w_0" arrivalPos="189.60" arrivalSpeed="14.94" duration="52.00" routeLength="394.90" waitingTime="0.00" waitingCount="0" stopTime="0.00" timeLoss="25.39" rerouteNo="0" devices="tripinfo_car_10" vType="typeCar" speedFactor="1.09" vaporized=""/>
    <tripinfo id="car_15" depart="27.00" departLane="n2A_0" departPos="5.10" departSpeed="0.00" departDelay="2.00" arrival="70.00" arrivalLane="A2s_1" arrivalPos="189.60" arrivalSpeed="12.57" duration="43.00" routeLength="394.90" waitingTime="0.00" waitingCount="0" stopTime="0.00" timeLoss="11.50" rerouteNo="0" devices="tripinfo_car_15" vType="typeCar" speedFactor="0.93" vaporized=""/>
    <tripinfo id="car_17" depart="32.00" departLane="n2A_0" departPos="5.10" departSpeed="0.00" departDelay="1.00" arrival="73.00" arrivalLane="A2s_1" arrivalPos="189.60" arrivalSpeed="12.81" duration="41.00" routeLength="394.90" waitingTime="0.00" waitingCount="0" stopTime="0.00" timeLoss="10.76" rerouteNo="0" devices="tripinfo_car_17" vType="typeCar" speedFactor="0.94" vaporized=""/>
    <tripinfo id="car_12" depart="22.00" departLane="s2A_0" departPos="5.10" departSpeed="0.00" departDelay="0.00" arrival="74.00" arrivalLane="A2n_0" arrivalPos="189.60" arrivalSpeed="14.41" duration="52.00" routeLength="394.90" waitingTime="0.00" waitingCount="0" stopTime="0.00" timeLoss="24.66" rerouteNo="0" devices="tripinfo_car_12" vType="typeCar" speedFactor="1.05" vaporized=""/>
    <tripinfo id="car_11" depart="22.00" departLane="n2A_0" departPos="5.10" departSpeed="0.00" departDelay="0.00" arrival="75.00" arrivalLane="A2s_0" arrivalPos="189.60" arrivalSpeed="14.16" duration="53.00" routeLength="394.90" waitingTime="1.00" waitingCount="1" stopTime="0.00" timeLoss="25.01" rerouteNo="0" devices="tripinfo_car_11" vType="typeCar" speedFactor="1.03" vaporized=""/>
    <tripinfo id="car_22" depart="37.00" departLane="e2A_0" departPos="5.10" departSpeed="0.00" departDelay="3.00" arrival="77.00" arrivalLane="A2w_1" arrivalPos="189.60" arrivalSpeed="13.26" duration="40.00" routeLength="394.90" waitingTime="0.00" waitingCount="0" stopTime="0.00" timeLoss="10.26" rerouteNo="0" devices="tripinfo_car_22" vType="typeCar" speedFactor="0.98" vaporized=""/>
    <tripinfo id="car_16" depart="33.00" departLane="w2A_0" departPos="5.10" departSpeed="0.00" departDelay="7.00" arrival="79.00" arrivalLane="A2e_1" arrivalPos="189.60" arrivalSpeed="11.83" duration="46.00" routeLength="394.90" waitingTime="0.00" waitingCount="0" stopTime="0.00" timeLoss="12.70" rerouteNo="0" devices="tripinfo_car_16" vType="typeCar" speedFactor="0.88" vaporized=""/>
    <tripinfo id="car_18" depart="39.00" departLane="w2A_0" departPos="5.10" departSpeed="0.00" departDelay="8.00" arrival="80.00" arrivalLane="A2e_1" arrivalPos="189.60" arrivalSpeed="12.66" duration="41.00" routeLength="394.90" waitingTime="0.00" waitingCount="0" stopTime="0.00" timeLoss="10.61" rerouteNo="0" devices="tripinfo_car_18" vType="typeCar" speedFactor="0.94" vaporized=""/>
    <tripinfo id="car_19" depart="32.00" departLane="e2A_0" departPos="5.10" departSpeed="0.00" departDelay="0.00" arrival="85.00" arrivalLane="A2w_0" arrivalPos="189.60" arrivalSpeed="16.02" duration="53.00" routeLength="394.90" waitingTime="2.00" waitingCount="1" stopTime="0.00" timeLoss="28.25" rerouteNo="0" devices="tripinfo_car_19" vType="typeCar" speedFactor="1.16" vaporized=""/>
    <tripinfo id="car_14" depart="28.00" departLane="w2A_0" departPos="5.10" departSpeed="0.00" departDelay="5.00" arrival="86.00" arrivalLane="A2e_0" arrivalPos="189.60" arrivalSpeed="13.37" duration="58.00" routeLength="394.90" waitingTime="5.00" waitingCount="1" stopTime="0.00" timeLoss="28.67" rerouteNo="0" devices="tripinfo_car_14" vType="typeCar" speedFactor="0.99" vaporized=""/>
    <tripinfo id="car_20" depart="44.00" departLane="w2A_0" departPos="5.10" departSpeed="0.00" departDelay="11.00" arrival="86.00" arrivalLane="A2e_1" arrivalPos="189.60" arrivalSpeed="13.89" duration="42.00" routeLength="394.90" waitingTime="0.00" waitingCount="0" stopTime="0.00" timeLoss="13.70" rerouteNo="0" devices="tripinfo_car_20" vType="typeCar" speedFactor="1.02" vaporized=""/>
    <tripinfo id="car_24" depart="42.00" departLane="n2A_0" departPos="5.10" departSpeed="0.00" departDelay="2.00" arrival="89.00" arrivalLane="A2s_1" arrivalPos="189.60" arrivalSpeed="11.30" duration="47.00" routeLength="394.90" waitingTime="1.00" waitingCount="1" stopTime="0.00" timeLoss="11.89" rerouteNo="0" devices="tripinfo_car_24" vType="typeCar" speedFactor="0.83" vaporized=""/>
    <tripinfo id="car_25" depart="48.00" departLane="n2A_0" departPos="5.10" departSpeed="0.00" departDelay="4.00" arrival="91.00" arrivalLane="A2s_1" arrivalPos="189.60" arrivalSpeed="11.86" duration="43.00" routeLength="394.90" waitingTime="0.00" waitingCount="0" stopTime="0.00" timeLoss="10.33" rerouteNo="0" devices="tripinfo_car_25" vType="typeCar" speedFactor="0.87" vaporized=""/>
    <tripinfo id="car_21" depart="37.00" departLane="n2A_0" departPos="5.10" departSpeed="0.00" departDelay="3.00" arrival="95.00" arrivalLane="A2s_0" arrivalPos="189.60" arrivalSpeed="14.01" duration="58.00" routeLength="394.90" waitingTime="6.00" waitingCount="1" stopTime="0.00" timeLoss="29.40" rerouteNo="0" devices="tripinfo_car_21" vType="typeCar" speedFactor="1.01" vaporized=""/>
    <tripinfo id="car_28" depart="56.00" departLane="n2A_0" departPos="5.10" departSpeed="0.00" departDelay="0.00" arrival="97.00" arrivalLane="A2s_0" arrivalPos="189.60" arrivalSpeed="15.46" duration="41.00" routeLength="394.90" waitingTime="0.00" waitingCount="0" stopTime="0.00" timeLoss="14.98" rerouteNo="0" devices="tripinfo_car_28" vType="typeCar" speedFactor="1.13" vaporized=""/>
    <tripinfo id="car_31" depart="63.00" departLane="n2A_0" departPos="5.10" departSpeed="0.00" departDelay="0.00" arrival="102.00" arrivalLane="A2s_0" arrivalPos="189.60" arrivalSpeed="15.64" duration="39.00" routeLength="394.90" waitingTime="0.00" waitingCount="0" stopTime="0.00" timeLoss="13.93" rerouteNo="0" devices="tripinfo_car_31" vType="typeCar" speedFactor="1.15" vaporized=""/>
    <tripinfo id="car_33" depart="67.00" departLane="s2A_0" departPos="5.10" departSpeed="0.00" departDelay="0.00" arrival="106.00" arrivalLane="A2n_0" arrivalPos="189.60" arrivalSpeed="16.08" duration="39.00" routeLength="394.90" waitingTime="0.00" waitingCount="0" stopTime="0.00" timeLoss="13.85" rerouteNo="0" devices="tripinfo_car_33" vType="typeCar" speedFactor="1.17" vaporized=""/>
    <tripinfo id="car_32" depart="68.00" departLane="n2A_0" departPos="5.10" departSpeed="0.00" departDelay="4.00" arrival="109.00" arrivalLane="A2s_0" arrivalPos="189.60" arrivalSpeed="13.95" duration="41.00" routeLength="394.90" waitingTime="0.00" waitingCount="0" stopTime="0.00" timeLoss="12.26" rerouteNo="0" devices="tripinfo_car_32" vType="typeCar" speedFactor="1.01" vaporized=""/>
    <tripinfo id="car_38" depart="74.00" departLane="s2A_0" departPos="5.10" departSpeed="0.00" departDelay="0.00" arrival="112.00" arrivalLane="A2n_0" arrivalPos="189.60" arrivalSpeed="15.25" duration="38.00" routeLength="394.90" waitingTime="0.00" waitingCount="0" stopTime="0.00" timeLoss="11.97" rerouteNo="0" devices="tripinfo_car_38" vType="typeCar" speedFactor="1.10" vaporized=""/>
    <tripinfo id="car_27" depart="51.00" departLane="e2A_0" departPos="5.10" departSpeed="0.00" departDelay="0.00" arrival="125.00" arrivalLane="A2w_1" arrivalPos="189.60" arrivalSpeed="13.10" duration="74.00" routeLength="394.90" waitingTime="20.00" waitingCount="1" stopTime="0.00" timeLoss="43.86" rerouteNo="0" devices="tripinfo_car_27" vType="typeCar" speedFactor="0.95" vaporized=""/>
    <tripinfo id="car_29" depart="57.00" departLane="w2A_0" departPos="5.10" departSpeed="0.00" departDelay="0.00" arrival="126.00" arrivalLane="A2e_1" arrivalPos="189.60" arrivalSpeed="12.87" duration="69.00" routeLength="394.90" waitingTime="14.00" waitingCount="1" stopTime="0.00" timeLoss="37.59" rerouteNo="0" devices="tripinfo_car_29" vType="typeCar" speedFactor="0.93" vaporized=""/>
    <tripinfo id="car_23" depart="50.00" departLane="w2A_0" departPos="5.10" departSpeed="0.00" departDelay="12.00" arrival="126.00" arrivalLane="A2e_0" arrivalPos="189.60" arrivalSpeed="11.98" duration="76.00" routeLength="394.90" waitingTime="23.00" waitingCount="1" stopTime="0.00" timeLoss="43.78" rerouteNo="0" devices="tripinfo_car_23" vType="typeCar" speedFactor="0.89" vaporized=""/>
    <tripinfo id="car_26" depart="45.00" departLane="e2A_0" departPos="5.10" departSpeed="0.00" departDelay="0.00" arrival="127.00" arrivalLane="A2w_0" arrivalPos="189.60" arrivalSpeed="12.41" duration="82.00" routeLength="394.90" waitingTime="30.00" waitingCount="1" stopTime="0.00" timeLoss="50.72" rerouteNo="0" devices="tripinfo_car_26" vType="typeCar" speedFactor="0.92" vaporized=""/>
    <tripinfo id="car_37" depart="73.00" departLane="w2A_0" departPos="5.10" departSpeed="0.00" departDelay="1.00" arrival="127.00" arrivalLane="A2e_1" arrivalPos="189.60" arrivalSpeed="14.31" duration="54.00" routeLength="394.90" waitingTime="0.00" waitingCount="0" stopTime="0.00" timeLoss="29.82" rerouteNo="0" devices="tripinfo_car_37" vType="typeCar" speedFactor="1.18" vaporized=""/>
    <tripinfo id="car_35" depart="68.00" departLane="e2A_0" departPos="5.10" departSpeed="0.00" departDelay="0.00" arrival="127.00" arrivalLane="A2w_1" arrivalPos="189.60" arrivalSpeed="14.07" duration="59.00" routeLength="394.90" waitingTime="4.00" waitingCount="1" stopTime="0.00" timeLoss="30.81" rerouteNo="0" devices="tripinfo_car_35" vType="typeCar" speedFactor="1.02" vaporized=""/>
    <tripinfo id="car_34" depart="68.00" departLane="w2A_0" departPos="5.10" departSpeed="0.00" departDelay="0.00" arrival="128.00" arrivalLane="A2e_0" arrivalPos="189.60" arrivalSpeed="13.53" duration="60.00" routeLength="394.90" waitingTime="7.00" waitingCount="1" stopTime="0.00" timeLoss="30.81" rerouteNo="0" devices="tripinfo_car_34" vType="typeCar" speedFactor="0.99" vaporized=""/>
    <tripinfo id="car_30" depart="58.00" departLane="e2A_0" departPos="5.10" departSpeed="0.00" departDelay="0.00" arrival="129.00" arrivalLane="A2w_0" arrivalPos="189.60" arrivalSpeed="14.00" duration="71.00" routeLength="394.90" waitingTime="15.00" waitingCount="1" stopTime="0.00" timeLoss="46.28" rerouteNo="0" devices="tripinfo_car_30" vType="typeCar" speedFactor="1.18" vaporized=""/>
    <tripinfo id="car_36" depart="73.00" departLane="e2A_0" departPos="5.10" departSpeed="0.00" departDelay="2.00" arrival="131.00" arrivalLane="A2w_0" arrivalPos="189.60" arrivalSpeed="13.25" duration="58.00" routeLength="394.90" waitingTime="3.00" waitingCount="1" stopTime="0.00" timeLoss="27.93" rerouteNo="0" devices="tripinfo_car_36" vType="typeCar" speedFactor="0.97" vaporized=""/>
    <tripinfo id="car_43" depart="92.00" departLane="n2A_0" departPos="5.10" departSpeed="0.00" departDelay="0.00" arrival="132.00" arrivalLane="A2s_1" arrivalPos="189.60" arrivalSpeed="14.16" duration="40.00" routeLength="394.90" waitingTime="0.00" waitingCount="0" stopTime="0.00" timeLoss="11.81" rerouteNo="0" devices="tripinfo_car_43" vType="typeCar" speedFactor="1.04" vaporized=""/>
    <tripinfo id="car_39" depart="78.00" departLane="w2A_0" departPos="5.10" departSpeed="0.00" departDelay="4.00" arrival="132.00" arrivalLane="A2e_0" arrivalPos="189.60" arrivalSpeed="12.42" duration="54.00" routeLength="394.90" waitingTime="0.00" waitingCount="0" stopTime="0.00" timeLoss="21.77" rerouteNo="0" devices="tripinfo_car_39" vType="typeCar" speedFactor="0.90" vaporized=""/>
    <tripinfo id="car_40" depart="81.00" departLane="n2A_0" departPos="5.10" departSpeed="0.00" departDelay="0.00" arrival="139.00" arrivalLane="A2s_0" arrivalPos="189.60" arrivalSpeed="14.22" duration="58.00" routeLength="394.90" waitingTime="1.00" waitingCount="1" stopTime="0.00" timeLoss="29.78" rerouteNo="0" devices="tripinfo_car_40" vType="typeCar" speedFactor="1.03" vaporized=""/>
    <tripinfo id="car_48" depart="103.00" departLane="e2A_0" departPos="5.10" departSpeed="0.00" departDelay="0.00" arrival="152.00" arrivalLane="A2w_0" arrivalPos="189.60" arrivalSpeed="11.80" duration="49.00" routeLength="394.90" waitingTime="0.00" waitingCount="0" stopTime="0.00" timeLoss="16.53" rerouteNo="0" devices="tripinfo_car_48" vType="typeCar" speedFactor="0.88" vaporized=""/>
    <tripinfo id="car_49" depart="108.00" departLane="e2A_0" departPos="5.10" departSpeed="0.00" departDelay="4.00" arrival="154.00" arrivalLane="A2w_1" arrivalPos="189.60" arrivalSpeed="11.73" duration="46.00" routeLength="394.90" waitingTime="0.00" waitingCount="0" stopTime="0.00" timeLoss="12.47" rerouteNo="0" devices="tripinfo_car_49" vType="typeCar" speedFactor="0.85" vaporized=""/>
    <tripinfo id="car_41" depart="85.00" departLane="w2A_0" departPos="5.10" departSpeed="0.00" departDelay="0.00" arrival="155.00" arrivalLane="A2e_1" arrivalPos="189.60" arrivalSpeed="12.99" duration="70.00" routeLength="394.90" waitingTime="17.00" waitingCount="1" stopTime="0.00" timeLoss="40.27" rerouteNo="0" devices="tripinfo_car_41" vType="typeCar" speedFactor="0.96" vaporized=""/>
    <tripinfo id="car_42" depart="90.00" departLane="w2A_0" departPos="5.10" departSpeed="0.00" departDelay="1.00" arrival="155.00" arrivalLane="A2e_0" arrivalPos="189.60" arrivalSpeed="15.14" duration="65.00" routeLength="394.90" waitingTime="12.00" waitingCount="1" stopTime="0.00" timeLoss="38.88" rerouteNo="0" devices="tripinfo_car_42" vType="typeCar" speedFactor="1.09" vaporized=""/>
    <tripinfo id="car_44" depart="93.00" departLane="e2A_0" departPos="5.10" departSpeed="0.00" departDelay="0.00" arrival="157.00" arrivalLane="A2w_0" arrivalPos="189.60" arrivalSpeed="14.47" duration="64.00" routeLength="394.90" waitingTime="10.00" waitingCount="1" stopTime="0.00" timeLoss="36.33" rerouteNo="0" devices="tripinfo_car_44" vType="typeCar" speedFactor="1.04" vaporized=""/>
    <tripinfo id="car_45" depart="96.00" departLane="w2A_0" departPos="5.10" departSpeed="0.00" departDelay="0.00" arrival="157.00" arrivalLane="A2e_0" arrivalPos="189.60" arrivalSpeed="15.11" duration="61.00" routeLength="394.90" waitingTime="10.00" waitingCount="1" stopTime="0.00" timeLoss="34.50" rerouteNo="0" devices="tripinfo_car_45" vType="typeCar" speedFactor="1.09" vaporized=""/>
    <tripinfo id="car_50" depart="113.00" departLane="e2A_0" departPos="5.10" departSpeed="0.00" departDelay="7.00" arrival="157.00" arrivalLane="A2w_1" arrivalPos="189.60" arrivalSpeed="11.79" duration="44.00" routeLength="394.90" waitingTime="0.00" waitingCount="0" stopTime="0.00" timeLoss="10.22" rerouteNo="0" devices="tripinfo_car_50" vType="typeCar" speedFactor="0.85" vaporized=""/>
    <tripinfo id="car_46" depart="101.00" departLane="w2A_0" departPos="5.10" departSpeed="0.00" departDelay="3.00" arrival="158.00" arrivalLane="A2e_1" arrivalPos="189.60" arrivalSpeed="13.82" duration="57.00" routeLength="394.90" waitingTime="3.00" waitingCount="1" stopTime="0.00" timeLoss="27.85" rerouteNo="0" devices="tripinfo_car_46" vType="typeCar" speedFactor="1.00" vaporized=""/>
    <tripinfo id="car_51" depart="111.00" departLane="w2A_0" departPos="5.10" departSpeed="0.00" departDelay="4.00" arrival="159.00" arrivalLane="A2e_1" arrivalPos="189.60" arrivalSpeed="15.19" duration="48.00" routeLength="394.90" waitingTime="0.00" waitingCount="0" stopTime="0.00" timeLoss="23.68" rerouteNo="0" devices="tripinfo_car_51" vType="typeCar" speedFactor="1.17" vaporized=""/>
    <tripinfo id="car_54" depart="120.00" departLane="s2A_0" departPos="5.10" departSpeed="0.00" departDelay="0.00" arrival="160.00" arrivalLane="A2n_0" arrivalPos="189.60" arrivalSpeed="13.90" duration="40.00" routeLength="394.90" waitingTime="0.00" waitingCount="0" stopTime="0.00" timeLoss="11.51" rerouteNo="0" devices="tripinfo_car_54" vType="typeCar" speedFactor="1.00" vaporized=""/>
    <tripinfo id="car_47" depart="106.00" departLane="w2A_0" departPos="5.10" departSpeed="0.00" departDelay="5.00" arrival="160.00" arrivalLane="A2e_0" arrivalPos="189.60" arrivalSpeed="12.39" duration="54.00" routeLength="394.90" waitingTime="0.00" waitingCount="0" stopTime="0.00" timeLoss="21.71" rerouteNo="0" devices="tripinfo_car_47" vType="typeCar" speedFactor="0.90" vaporized=""/>
    <tripinfo id="car_53" depart="115.00" departLane="n2A_0" departPos="5.10" departSpeed="0.00" departDelay="0.00" arrival="161.00" arrivalLane="A2s_0" arrivalPos="189.60" arrivalSpeed="14.86" duration="46.00" routeLength="394.90" waitingTime="0.00" waitingCount="0" stopTime="0.00" timeLoss="19.55" rerouteNo="0" devices="tripinfo_car_53" vType="typeCar" speedFactor="1.10" vaporized=""/>
    <tripinfo id="car_59" depart="126.00" departLane="w2A_0" departPos="5.10" departSpeed="0.00" departDelay="0.00" arrival="168.00" arrivalLane="A2e_0" arrivalPos="189.60" arrivalSpeed="13.46" duration="42.00" routeLength="394.90" waitingTime="0.00" waitingCount="0" stopTime="0.00" timeLoss="12.51" rerouteNo="0" devices="tripinfo_car_59" vType="typeCar" speedFactor="0.97" vaporized=""/>
    <tripinfo id="car_56" depart="124.00" departLane="e2A_0" departPos="5.10" departSpeed="0.00" departDelay="0.00" arrival="169.00" arrivalLane="A2w_1" arrivalPos="189.60" arrivalSpeed="12.47" duration="45.00" routeLength="394.90" waitingTime="0.00" waitingCount="0" stopTime="0.00" timeLoss="13.34" rerouteNo="0" devices="tripinfo_car_56" vType="typeCar" speedFactor="0.90" vaporized=""/>
    <tripinfo id="car_61" depart="131.00" departLane="w2A_0" departPos="5.10" departSpeed="0.00" departDelay="2.00" arrival="171.00" arrivalLane="A2e_0" arrivalPos="189.60" arrivalSpeed="15.15" duration="40.00" routeLength="394.90" waitingTime="1.00" waitingCount="1" stopTime="0.00" timeLoss="13.80" rerouteNo="0" devices="tripinfo_car_61" vType="typeCar" speedFactor="1.12" vaporized=""/>
    <tripinfo id="car_52" depart="118.00" departLane="e2A_0" departPos="5.10" departSpeed="0.00" departDelay="10.00" arrival="175.00" arrivalLane="A2w_0" arrivalPos="189.60" arrivalSpeed="13.81" duration="57.00" routeLength="394.90" waitingTime="5.00" waitingCount="1" stopTime="0.00" timeLoss="28.56" rerouteNo="0" devices="tripinfo_car_52" vType="typeCar" speedFactor="1.02" vaporized=""/>
    <tripinfo id="car_64" depart="134.00" departLane="e2A_0" departPos="5.10" departSpeed="0.00" departDelay="0.00" arrival="177.00" arrivalLane="A2w_1" arrivalPos="189.60" arrivalSpeed="12.68" duration="43.00" routeLength="394.90" waitingTime="0.00" waitingCount="0" stopTime="0.00" timeLoss="11.80" rerouteNo="0" devices="tripinfo_car_64" vType="typeCar" speedFactor="0.94" vaporized=""/>
    <tripinfo id="car_60" depart="131.00" departLane="n2A_0" departPos="5.10" departSpeed="0.00" departDelay="4.00" arrival="186.00" arrivalLane="A2s_1" arrivalPos="189.60" arrivalSpeed="14.94" duration="55.00" routeLength="394.90" waitingTime="2.00" waitingCount="1" stopTime="0.00" timeLoss="28.34" rerouteNo="0" devices="tripinfo_car_60" vType="typeCar" speedFactor="1.08" vaporized=""/>
    <tripinfo id="car_57" depart="131.00" departLane="s2A_0" departPos="5.10" departSpeed="0.00" departDelay="6.00" arrival="186.00" arrivalLane="A2n_1" arrivalPos="189.60" arrivalSpeed="15.53" duration="55.00" routeLength="394.90" waitingTime="2.00" waitingCount="1" stopTime="0.00" timeLoss="29.65" rerouteNo="0" devices="tripinfo_car_57" vType="typeCar" speedFactor="1.14" vaporized=""/>
    <tripinfo id="car_55" depart="125.00" departLane="s2A_0" departPos="5.10" departSpeed="0.00" departDelay="2.00" arrival="186.00" arrivalLane="A2n_0" arrivalPos="189.60" arrivalSpeed="13.54" duration="61.00" routeLength="394.90" waitingTime="7.00" waitingCount="2" stopTime="0.00" timeLoss="32.21" rerouteNo="0" devices="tripinfo_car_55" vType="typeCar" speedFactor="1.00" vaporized=""/>
    <tripinfo id="car_58" depart="126.00" departLane="n2A_0" departPos="5.10" departSpeed="0.00" departDelay="0.00" arrival="187.00" arrivalLane="A2s_0" arrivalPos="189.60" arrivalSpeed="13.86" duration="61.00" routeLength="394.90" waitingTime="6.00" waitingCount="1" stopTime="0.00" timeLoss="32.34" rerouteNo="0" devices="tripinfo_car_58" vType="typeCar" speedFactor="1.02" vaporized=""/>
    <tripinfo id="car_69" depart="147.00" departLane="s2A_0" departPos="5.10" departSpeed="0.00" departDelay="0.00" arrival="188.00" arrivalLane="A2n_0" arrivalPos="189.60" arrivalSpeed="14.14" duration="41.00" routeLength="394.90" waitingTime="0.00" waitingCount="0" stopTime="0.00" timeLoss="12.50" rerouteNo="0" devices="tripinfo_car_69" vType="typeCar" speedFactor="1.02" vaporized=""/>
    <tripinfo id="car_62" depart="136.00" departLane="n2A_0" departPos="5.10" departSpeed="0.00" departDelay="4.00" arrival="189.00" arrivalLane="A2s_0" arrivalPos="189.60" arrivalSpeed="13.72" duration="53.00" routeLength="394.90" waitingTime="0.00" waitingCount="0" stopTime="0.00" timeLoss="24.20" rerouteNo="0" devices="tripinfo_car_62" vType="typeCar" speedFactor="1.02" vaporized=""/>
    <tripinfo id="car_71" depart="150.00" departLane="n2A_0" departPos="5.10" departSpeed="0.00" departDelay="0.00" arrival="191.00" arrivalLane="A2s_0" arrivalPos="189.60" arrivalSpeed="13.45" duration="41.00" routeLength="394.90" waitingTime="0.00" waitingCount="0" stopTime="0.00" timeLoss="10.96" rerouteNo="0" devices="tripinfo_car_71" vType="typeCar" speedFactor="0.97" vaporized=""/>
    <tripinfo id="car_72" depart="155.00" departLane="n2A_0" departPos="5.10" departSpeed="0.00" departDelay="3.00" arrival="196.00" arrivalLane="A2s_0" arrivalPos="189.60" arrivalSpeed="12.80" duration="41.00" routeLength="394.90" waitingTime="0.00" waitingCount="0" stopTime="0.00" timeLoss="10.66" rerouteNo="0" devices="tripinfo_car_72" vType="typeCar" speedFactor="0.94" vaporized=""/>
    <tripinfo id="car_74" depart="159.00" departLane="s2A_0" departPos="5.10" departSpeed="0.00" departDelay="0.00" arrival="201.00" arrivalLane="A2n_0" arrivalPos="189.60" arrivalSpeed="12.97" duration="42.00" routeLength="394.90" waitingTime="0.00" waitingCount="0" stopTime="0.00" timeLoss="12.07" rerouteNo="0" devices="tripinfo_car_74" vType="typeCar" speedFactor="0.96" vaporized=""/>
    <tripinfo id="car_77" depart="164.00" departLane="n2A_0" departPos="5.10" departSpeed="0.00" departDelay="0.00" arrival="204.00" arrivalLane="A2s_0" arrivalPos="189.60" arrivalSpeed="13.33" duration="40.00" routeLength="394.90" waitingTime="0.00" waitingCount="0" stopTime="0.00" timeLoss="10.81" rerouteNo="0" devices="tripinfo_car_77" vType="typeCar" speedFactor="0.98" vaporized=""/>
    <tripinfo id="car_68" depart="145.00" departLane="e2A_0" departPos="5.10" departSpeed="0.00" departDelay="0.00" arrival="216.00" arrivalLane="A2w_1" arrivalPos="189.60" arrivalSpeed="14.13" duration="71.00" routeLength="394.90" waitingTime="17.00" waitingCount="1" stopTime="0.00" timeLoss="43.41" rerouteNo="0" devices="tripinfo_car_68" vType="typeCar" speedFactor="1.04" vaporized=""/>
    <tripinfo id="car_63" depart="137.00" departLane="w2A_0" departPos="5.10" departSpeed="0.00" departDelay="5.00" arrival="216.00" arrivalLane="A2e_0" arrivalPos="189.60" arrivalSpeed="13.65" duration="79.00" routeLength="394.90" waitingTime="25.00" waitingCount="1" stopTime="0.00" timeLoss="49.41" rerouteNo="0" devices="tripinfo_car_63" vType="typeCar" speedFactor="0.99" vaporized=""/>
    <tripinfo id="car_65" depart="142.00" departLane="w2A_0" departPos="5.10" departSpeed="0.00" departDelay="7.00" arrival="217.00" arrivalLane="A2e_1" arrivalPos="189.60" arrivalSpeed="12.19" duration="75.00" routeLength="394.90" waitingTime="21.00" waitingCount="1" stopTime="0.00" timeLoss="42.31" rerouteNo="0" devices="tripinfo_car_65" vType="typeCar" speedFactor="0.88" vaporized=""/>
    <tripinfo id="car_66" depart="139.00" departLane="e2A_0" departPos="5.10" departSpeed="0.00" departDelay="4.00" arrival="217.00" arrivalLane="A2w_0" arrivalPos="189.60" arrivalSpeed="12.46" duration="78.00" routeLength="394.90" waitingTime="24.00" waitingCount="1" stopTime="0.00" timeLoss="45.70" rerouteNo="0" devices="tripinfo_car_66" vType="typeCar" speedFactor="0.91" vaporized=""/>
    <tripinfo id="car_75" depart="160.00" departLane="e2A_0" departPos="5.10" departSpeed="0.00" departDelay="0.00" arrival="218.00" arrivalLane="A2w_1" arrivalPos="189.60" arrivalSpeed="13.61" duration="58.00" routeLength="394.90" waitingTime="2.00" waitingCount="1" stopTime="0.00" timeLoss="28.65" rerouteNo="0" devices="tripinfo_car_75" vType="typeCar" speedFactor="0.98" vaporized=""/>